<VTKFile type="UnstructuredGrid" byte_order="BigEndian">
<UnstructuredGrid><Piece NumberOfPoints="961" NumberOfCells="900">
<Points>
 <DataArray type="Float32" NumberOfComponents="3" format="ascii">
 0.000000000000000000e+00 0.000000000000000000e+00 0.000000000000000000e+00
 5.000000000000000000e-01 0.000000000000000000e+00 0.000000000000000000e+00
 1.000000000000000000e+00 0.000000000000000000e+00 0.000000000000000000e+00
 1.500000000000000000e+00 0.000000000000000000e+00 0.000000000000000000e+00
 2.000000000000000000e+00 0.000000000000000000e+00 0.000000000000000000e+00
 2.500000000000000000e+00 0.000000000000000000e+00 0.000000000000000000e+00
 3.000000000000000000e+00 0.000000000000000000e+00 0.000000000000000000e+00
 3.500000000000000000e+00 0.000000000000000000e+00 0.000000000000000000e+00
 4.000000000000000000e+00 0.000000000000000000e+00 0.000000000000000000e+00
 4.500000000000000000e+00 0.000000000000000000e+00 0.000000000000000000e+00
 5.000000000000000000e+00 0.000000000000000000e+00 0.000000000000000000e+00
 5.500000000000000000e+00 0.000000000000000000e+00 0.000000000000000000e+00
 6.000000000000000000e+00 0.000000000000000000e+00 0.000000000000000000e+00
 6.500000000000000000e+00 0.000000000000000000e+00 0.000000000000000000e+00
 7.000000000000000000e+00 0.000000000000000000e+00 0.000000000000000000e+00
 7.500000000000000000e+00 0.000000000000000000e+00 0.000000000000000000e+00
 8.000000000000000000e+00 0.000000000000000000e+00 0.000000000000000000e+00
 8.500000000000000000e+00 0.000000000000000000e+00 0.000000000000000000e+00
 9.000000000000000000e+00 0.000000000000000000e+00 0.000000000000000000e+00
 9.500000000000000000e+00 0.000000000000000000e+00 0.000000000000000000e+00
 1.000000000000000000e+01 0.000000000000000000e+00 0.000000000000000000e+00
 1.050000000000000000e+01 0.000000000000000000e+00 0.000000000000000000e+00
 1.100000000000000000e+01 0.000000000000000000e+00 0.000000000000000000e+00
 1.150000000000000000e+01 0.000000000000000000e+00 0.000000000000000000e+00
 1.200000000000000000e+01 0.000000000000000000e+00 0.000000000000000000e+00
 1.250000000000000000e+01 0.000000000000000000e+00 0.000000000000000000e+00
 1.300000000000000000e+01 0.000000000000000000e+00 0.000000000000000000e+00
 1.350000000000000000e+01 0.000000000000000000e+00 0.000000000000000000e+00
 1.400000000000000000e+01 0.000000000000000000e+00 0.000000000000000000e+00
 1.450000000000000000e+01 0.000000000000000000e+00 0.000000000000000000e+00
 1.500000000000000000e+01 0.000000000000000000e+00 0.000000000000000000e+00
 0.000000000000000000e+00 5.000000000000000000e-01 0.000000000000000000e+00
 5.000000000000000000e-01 5.000000000000000000e-01 0.000000000000000000e+00
 1.000000000000000000e+00 5.000000000000000000e-01 0.000000000000000000e+00
 1.500000000000000000e+00 5.000000000000000000e-01 0.000000000000000000e+00
 2.000000000000000000e+00 5.000000000000000000e-01 0.000000000000000000e+00
 2.500000000000000000e+00 5.000000000000000000e-01 0.000000000000000000e+00
 3.000000000000000000e+00 5.000000000000000000e-01 0.000000000000000000e+00
 3.500000000000000000e+00 5.000000000000000000e-01 0.000000000000000000e+00
 4.000000000000000000e+00 5.000000000000000000e-01 0.000000000000000000e+00
 4.500000000000000000e+00 5.000000000000000000e-01 0.000000000000000000e+00
 5.000000000000000000e+00 5.000000000000000000e-01 0.000000000000000000e+00
 5.500000000000000000e+00 5.000000000000000000e-01 0.000000000000000000e+00
 6.000000000000000000e+00 5.000000000000000000e-01 0.000000000000000000e+00
 6.500000000000000000e+00 5.000000000000000000e-01 0.000000000000000000e+00
 7.000000000000000000e+00 5.000000000000000000e-01 0.000000000000000000e+00
 7.500000000000000000e+00 5.000000000000000000e-01 0.000000000000000000e+00
 8.000000000000000000e+00 5.000000000000000000e-01 0.000000000000000000e+00
 8.500000000000000000e+00 5.000000000000000000e-01 0.000000000000000000e+00
 9.000000000000000000e+00 5.000000000000000000e-01 0.000000000000000000e+00
 9.500000000000000000e+00 5.000000000000000000e-01 0.000000000000000000e+00
 1.000000000000000000e+01 5.000000000000000000e-01 0.000000000000000000e+00
 1.050000000000000000e+01 5.000000000000000000e-01 0.000000000000000000e+00
 1.100000000000000000e+01 5.000000000000000000e-01 0.000000000000000000e+00
 1.150000000000000000e+01 5.000000000000000000e-01 0.000000000000000000e+00
 1.200000000000000000e+01 5.000000000000000000e-01 0.000000000000000000e+00
 1.250000000000000000e+01 5.000000000000000000e-01 0.000000000000000000e+00
 1.300000000000000000e+01 5.000000000000000000e-01 0.000000000000000000e+00
 1.350000000000000000e+01 5.000000000000000000e-01 0.000000000000000000e+00
 1.400000000000000000e+01 5.000000000000000000e-01 0.000000000000000000e+00
 1.450000000000000000e+01 5.000000000000000000e-01 0.000000000000000000e+00
 1.500000000000000000e+01 5.000000000000000000e-01 0.000000000000000000e+00
 0.000000000000000000e+00 1.000000000000000000e+00 0.000000000000000000e+00
 5.000000000000000000e-01 1.000000000000000000e+00 0.000000000000000000e+00
 1.000000000000000000e+00 1.000000000000000000e+00 0.000000000000000000e+00
 1.500000000000000000e+00 1.000000000000000000e+00 0.000000000000000000e+00
 2.000000000000000000e+00 1.000000000000000000e+00 0.000000000000000000e+00
 2.500000000000000000e+00 1.000000000000000000e+00 0.000000000000000000e+00
 3.000000000000000000e+00 1.000000000000000000e+00 0.000000000000000000e+00
 3.500000000000000000e+00 1.000000000000000000e+00 0.000000000000000000e+00
 4.000000000000000000e+00 1.000000000000000000e+00 0.000000000000000000e+00
 4.500000000000000000e+00 1.000000000000000000e+00 0.000000000000000000e+00
 5.000000000000000000e+00 1.000000000000000000e+00 0.000000000000000000e+00
 5.500000000000000000e+00 1.000000000000000000e+00 0.000000000000000000e+00
 6.000000000000000000e+00 1.000000000000000000e+00 0.000000000000000000e+00
 6.500000000000000000e+00 1.000000000000000000e+00 0.000000000000000000e+00
 7.000000000000000000e+00 1.000000000000000000e+00 0.000000000000000000e+00
 7.500000000000000000e+00 1.000000000000000000e+00 0.000000000000000000e+00
 8.000000000000000000e+00 1.000000000000000000e+00 0.000000000000000000e+00
 8.500000000000000000e+00 1.000000000000000000e+00 0.000000000000000000e+00
 9.000000000000000000e+00 1.000000000000000000e+00 0.000000000000000000e+00
 9.500000000000000000e+00 1.000000000000000000e+00 0.000000000000000000e+00
 1.000000000000000000e+01 1.000000000000000000e+00 0.000000000000000000e+00
 1.050000000000000000e+01 1.000000000000000000e+00 0.000000000000000000e+00
 1.100000000000000000e+01 1.000000000000000000e+00 0.000000000000000000e+00
 1.150000000000000000e+01 1.000000000000000000e+00 0.000000000000000000e+00
 1.200000000000000000e+01 1.000000000000000000e+00 0.000000000000000000e+00
 1.250000000000000000e+01 1.000000000000000000e+00 0.000000000000000000e+00
 1.300000000000000000e+01 1.000000000000000000e+00 0.000000000000000000e+00
 1.350000000000000000e+01 1.000000000000000000e+00 0.000000000000000000e+00
 1.400000000000000000e+01 1.000000000000000000e+00 0.000000000000000000e+00
 1.450000000000000000e+01 1.000000000000000000e+00 0.000000000000000000e+00
 1.500000000000000000e+01 1.000000000000000000e+00 0.000000000000000000e+00
 0.000000000000000000e+00 1.500000000000000000e+00 0.000000000000000000e+00
 5.000000000000000000e-01 1.500000000000000000e+00 0.000000000000000000e+00
 1.000000000000000000e+00 1.500000000000000000e+00 0.000000000000000000e+00
 1.500000000000000000e+00 1.500000000000000000e+00 0.000000000000000000e+00
 2.000000000000000000e+00 1.500000000000000000e+00 0.000000000000000000e+00
 2.500000000000000000e+00 1.500000000000000000e+00 0.000000000000000000e+00
 3.000000000000000000e+00 1.500000000000000000e+00 0.000000000000000000e+00
 3.500000000000000000e+00 1.500000000000000000e+00 0.000000000000000000e+00
 4.000000000000000000e+00 1.500000000000000000e+00 0.000000000000000000e+00
 4.500000000000000000e+00 1.500000000000000000e+00 0.000000000000000000e+00
 5.000000000000000000e+00 1.500000000000000000e+00 0.000000000000000000e+00
 5.500000000000000000e+00 1.500000000000000000e+00 0.000000000000000000e+00
 6.000000000000000000e+00 1.500000000000000000e+00 0.000000000000000000e+00
 6.500000000000000000e+00 1.500000000000000000e+00 0.000000000000000000e+00
 7.000000000000000000e+00 1.500000000000000000e+00 0.000000000000000000e+00
 7.500000000000000000e+00 1.500000000000000000e+00 0.000000000000000000e+00
 8.000000000000000000e+00 1.500000000000000000e+00 0.000000000000000000e+00
 8.500000000000000000e+00 1.500000000000000000e+00 0.000000000000000000e+00
 9.000000000000000000e+00 1.500000000000000000e+00 0.000000000000000000e+00
 9.500000000000000000e+00 1.500000000000000000e+00 0.000000000000000000e+00
 1.000000000000000000e+01 1.500000000000000000e+00 0.000000000000000000e+00
 1.050000000000000000e+01 1.500000000000000000e+00 0.000000000000000000e+00
 1.100000000000000000e+01 1.500000000000000000e+00 0.000000000000000000e+00
 1.150000000000000000e+01 1.500000000000000000e+00 0.000000000000000000e+00
 1.200000000000000000e+01 1.500000000000000000e+00 0.000000000000000000e+00
 1.250000000000000000e+01 1.500000000000000000e+00 0.000000000000000000e+00
 1.300000000000000000e+01 1.500000000000000000e+00 0.000000000000000000e+00
 1.350000000000000000e+01 1.500000000000000000e+00 0.000000000000000000e+00
 1.400000000000000000e+01 1.500000000000000000e+00 0.000000000000000000e+00
 1.450000000000000000e+01 1.500000000000000000e+00 0.000000000000000000e+00
 1.500000000000000000e+01 1.500000000000000000e+00 0.000000000000000000e+00
 0.000000000000000000e+00 2.000000000000000000e+00 0.000000000000000000e+00
 5.000000000000000000e-01 2.000000000000000000e+00 0.000000000000000000e+00
 1.000000000000000000e+00 2.000000000000000000e+00 0.000000000000000000e+00
 1.500000000000000000e+00 2.000000000000000000e+00 0.000000000000000000e+00
[...]
<CellData>
 <DataArray Name="pos.x" type="Float32" NumberOfComponents="1" format="ascii">
 2.500000000000000000e-01
 7.500000000000000000e-01
 1.250000000000000000e+00
 1.750000000000000222e+00
 2.250000000000000000e+00
 2.750000000000000000e+00
 3.250000000000000888e+00
 3.750000000000000000e+00
 4.250000000000000000e+00
 4.750000000000000000e+00
 5.250000000000004441e+00
 5.749999999999990230e+00
 6.250000000000000000e+00
 6.750000000000008882e+00
 7.250000000000000000e+00
 7.750000000000000000e+00
 8.250000000000000000e+00
 8.750000000000000000e+00
 9.250000000000000000e+00
 9.750000000000000000e+00
 1.025000000000000000e+01
 1.075000000000001776e+01
 1.124999999999998046e+01
 1.174999999999998046e+01
 1.225000000000001776e+01
 1.274999999999998046e+01
 1.325000000000003730e+01
 1.375000000000000000e+01
 1.425000000000000000e+01
 1.474999999999996092e+01
 2.500000000000000000e-01
 7.500000000000000000e-01
 1.250000000000000000e+00
 1.750000000000000000e+00
 2.250000000000000000e+00
 2.750000000000000444e+00
 3.249999999999999556e+00
 3.750000000000002220e+00
 4.250000000000001776e+00
 4.749999999999994671e+00
 5.249999999999997335e+00
 5.750000000000005329e+00
 6.249999999999989342e+00
 6.750000000000004441e+00
 7.250000000000008882e+00
 7.750000000000000000e+00
 8.250000000000000000e+00
 8.750000000000008882e+00
 9.249999999999980460e+00
 9.750000000000000000e+00
 1.025000000000000000e+01
 1.075000000000000000e+01
 1.125000000000002132e+01
 1.175000000000000533e+01
 1.224999999999999467e+01
 1.274999999999996092e+01
 1.325000000000001776e+01
 1.375000000000000000e+01
 1.425000000000007461e+01
 1.475000000000000000e+01
 2.500000000000000000e-01
 7.500000000000000000e-01
 1.249999999999999556e+00
 1.750000000000000000e+00
 2.250000000000000000e+00
 2.750000000000000444e+00
 3.249999999999999556e+00
 3.750000000000003553e+00
 4.250000000000001776e+00
 4.749999999999992895e+00
 5.250000000000003553e+00
 5.749999999999998224e+00
 6.249999999999994671e+00
 6.750000000000008882e+00
 7.250000000000000000e+00
 7.750000000000000000e+00
 8.250000000000000000e+00
 8.749999999999996447e+00
 9.250000000000005329e+00
 9.749999999999980460e+00
 1.025000000000000000e+01
 1.075000000000000000e+01
 1.125000000000000355e+01
 1.174999999999998046e+01
 1.225000000000000000e+01
 1.274999999999998046e+01
 1.325000000000003730e+01
 1.375000000000004974e+01
 1.425000000000000000e+01
 1.474999999999996092e+01
 2.500000000000000000e-01
 7.500000000000000000e-01
 1.250000000000000000e+00
 1.750000000000000000e+00
 2.250000000000000444e+00
 2.749999999999998668e+00
 3.250000000000003997e+00
 3.749999999999999112e+00
 4.250000000000002665e+00
 4.750000000000002665e+00
 5.250000000000006217e+00
 5.749999999999994671e+00
 6.249999999999990230e+00
 6.750000000000014211e+00
 7.250000000000000000e+00
 7.750000000000000000e+00
 8.250000000000000000e+00
 8.750000000000017764e+00
 9.250000000000019540e+00
 9.749999999999989342e+00
 1.025000000000000000e+01
 1.075000000000001066e+01
 1.124999999999998757e+01
 1.174999999999998046e+01
 1.225000000000000711e+01
 1.274999999999995737e+01
 1.325000000000001776e+01
 1.375000000000000178e+01
 1.425000000000000000e+01
 1.475000000000003730e+01
 2.499999999999999445e-01
 7.500000000000001110e-01
 1.249999999999999778e+00
 1.750000000000000222e+00
 2.249999999999999112e+00
 2.750000000000000000e+00
 3.250000000000001776e+00
 3.749999999999997335e+00
 4.250000000000004441e+00
 4.749999999999992895e+00
 5.250000000000001776e+00
 5.749999999999999112e+00
 6.250000000000000000e+00
 6.750000000000008882e+00
 7.250000000000000000e+00
 7.750000000000000000e+00
 8.250000000000000000e+00
 8.750000000000000000e+00
 9.250000000000000000e+00
 9.749999999999987566e+00
 1.025000000000001776e+01
 1.075000000000000178e+01
 1.124999999999999822e+01
 1.175000000000000533e+01
 1.225000000000001243e+01
 1.274999999999998934e+01
 1.325000000000003730e+01
 1.375000000000000000e+01
 1.425000000000000000e+01
 1.475000000000000000e+01
 2.500000000000000555e-01
 7.499999999999997780e-01
 1.250000000000000222e+00
 1.750000000000000000e+00
 2.249999999999999112e+00
 2.750000000000002220e+00
 3.249999999999998224e+00
 3.749999999999998668e+00
 4.250000000000002665e+00
 4.750000000000001776e+00
 5.249999999999991118e+00
 5.750000000000016875e+00
 6.249999999999990230e+00
 6.750000000000004441e+00
 7.250000000000008882e+00
 7.750000000000000000e+00
 8.250000000000000000e+00
 8.750000000000000000e+00
 9.250000000000005329e+00
 9.749999999999984013e+00
 1.025000000000000000e+01
 1.075000000000000000e+01
 1.125000000000004441e+01
 1.175000000000003375e+01
 1.225000000000000000e+01
 1.274999999999994316e+01
 1.325000000000000888e+01
 1.375000000000001243e+01
 1.425000000000003730e+01
 1.474999999999996092e+01
 2.499999999999999722e-01
 7.500000000000000000e-01
 1.250000000000000222e+00
 1.749999999999999334e+00
 2.250000000000000444e+00
 2.750000000000002220e+00
 3.249999999999997335e+00
 3.750000000000000000e+00
 4.250000000000000000e+00
 4.750000000000004441e+00
 5.250000000000008882e+00
 5.749999999999999112e+00
 6.249999999999987566e+00
 6.750000000000000000e+00
 7.250000000000000000e+00
 7.750000000000000000e+00
 8.250000000000008882e+00
 8.749999999999980460e+00
 9.250000000000005329e+00
 9.749999999999978684e+00
 1.025000000000001776e+01
 1.075000000000000888e+01
 1.124999999999997158e+01
 1.175000000000002665e+01
 1.225000000000000000e+01
 1.274999999999996803e+01
 1.324999999999997691e+01
 1.374999999999998401e+01
 1.424999999999996092e+01
 1.475000000000000000e+01
 2.500000000000000555e-01
 7.499999999999998890e-01
 1.250000000000000000e+00
 1.750000000000000000e+00
 2.250000000000002220e+00
 2.749999999999998668e+00
 3.250000000000000888e+00
 3.750000000000000000e+00
 4.250000000000000000e+00
 4.750000000000007105e+00
 5.249999999999984013e+00
 5.750000000000000888e+00
 6.249999999999993783e+00
 6.750000000000004441e+00
 7.250000000000000000e+00
 7.750000000000000000e+00
 8.250000000000017764e+00
 8.749999999999989342e+00
 9.250000000000000000e+00
 9.750000000000026645e+00
 1.024999999999997513e+01
 1.074999999999998046e+01
 1.125000000000001776e+01
 1.175000000000000533e+01
 1.225000000000003730e+01
 1.274999999999995381e+01
 1.325000000000003730e+01
 1.374999999999999289e+01
 1.424999999999995914e+01
 1.475000000000002309e+01
 2.500000000000000000e-01
 7.500000000000001110e-01
 1.250000000000000222e+00
 1.749999999999999778e+00
 2.250000000000000000e+00
 2.750000000000003553e+00
 3.249999999999997335e+00
 3.750000000000000000e+00
 4.250000000000000000e+00
 4.750000000000000888e+00
 5.249999999999992895e+00
 5.750000000000007994e+00
 6.249999999999990230e+00
 6.750000000000000000e+00
 7.250000000000000000e+00
 7.750000000000000000e+00
 8.250000000000000000e+00
 8.750000000000000000e+00
 9.250000000000000000e+00
 9.750000000000003553e+00
 1.025000000000001776e+01
 1.074999999999996092e+01
 1.125000000000001776e+01
 1.175000000000001776e+01
 1.224999999999992362e+01
 1.275000000000001776e+01
 1.325000000000001066e+01
 1.375000000000000000e+01
 1.425000000000003730e+01
 1.475000000000003730e+01
 2.499999999999998612e-01
 7.500000000000002220e-01
 1.249999999999999778e+00
 1.750000000000000000e+00
 2.250000000000000444e+00
 2.750000000000001332e+00
 3.250000000000002220e+00
 3.749999999999997335e+00
 4.250000000000000000e+00
 4.750000000000007105e+00
 5.250000000000004441e+00
 5.749999999999996447e+00
 6.249999999999999112e+00
 6.750000000000007105e+00
 7.249999999999993783e+00
 7.749999999999990230e+00
 8.250000000000000000e+00
 8.750000000000000000e+00
 9.250000000000000000e+00
 9.750000000000007105e+00
 1.025000000000001599e+01
 1.074999999999996092e+01
 1.125000000000007816e+01
 1.174999999999998579e+01
 1.224999999999998934e+01
 1.275000000000000888e+01
 1.324999999999998401e+01
 1.375000000000005329e+01
 1.424999999999993072e+01
 1.475000000000000000e+01
 2.500000000000002220e-01
 7.499999999999995559e-01
 1.249999999999999778e+00
 1.750000000000000222e+00
 2.250000000000000888e+00
 2.749999999999999112e+00
 3.250000000000000444e+00
 3.749999999999999112e+00
 4.250000000000001776e+00
 4.749999999999995559e+00
 5.250000000000002665e+00
 5.749999999999994671e+00
 6.250000000000000000e+00
 6.750000000000007105e+00
 7.250000000000003553e+00
 7.749999999999994671e+00
 8.250000000000005329e+00
 8.750000000000005329e+00
 9.249999999999982236e+00
 9.749999999999987566e+00
 1.025000000000001599e+01
 1.075000000000001954e+01
 1.125000000000000888e+01
 1.174999999999999289e+01
 1.224999999999996092e+01
 1.275000000000003730e+01
 1.324999999999999112e+01
 1.375000000000003730e+01
 1.424999999999998757e+01
 1.475000000000000888e+01
 2.499999999999998057e-01
 7.499999999999998890e-01
 1.249999999999999778e+00
 1.750000000000000888e+00
 2.249999999999998668e+00
 2.749999999999999112e+00
 3.250000000000000000e+00
 3.750000000000001332e+00
 4.250000000000004441e+00
 4.750000000000000000e+00
 5.249999999999994671e+00
 5.750000000000000000e+00
 6.250000000000000000e+00
 6.750000000000000000e+00
 7.250000000000000000e+00
 7.749999999999994671e+00
 8.250000000000005329e+00
 8.750000000000014211e+00
 9.250000000000023093e+00
 9.749999999999980460e+00
 1.025000000000000000e+01
 1.074999999999998934e+01
 1.124999999999996270e+01
 1.175000000000003020e+01
 1.224999999999999289e+01
 1.275000000000003020e+01
 1.325000000000000000e+01
 1.375000000000001776e+01
 1.424999999999998757e+01
 1.475000000000005507e+01
 2.500000000000000000e-01
 7.500000000000001110e-01
 1.250000000000000000e+00
 1.749999999999999556e+00
 2.250000000000000444e+00
 2.749999999999999556e+00
 3.250000000000000000e+00
 3.749999999999999112e+00
 4.249999999999999112e+00
 4.750000000000000000e+00
 5.250000000000001776e+00
 5.750000000000000000e+00
 6.250000000000000000e+00
 6.750000000000000000e+00
 7.250000000000000000e+00
 7.750000000000000000e+00
 8.250000000000000000e+00
 8.750000000000000000e+00
 9.249999999999975131e+00
 9.750000000000026645e+00
 1.025000000000000000e+01
 1.074999999999999289e+01
 1.125000000000000711e+01
 1.174999999999998046e+01
 1.225000000000000888e+01
 1.275000000000001599e+01
 1.324999999999998401e+01
 1.375000000000001776e+01
 1.425000000000003197e+01
 1.475000000000005862e+01
 2.499999999999999445e-01
 7.500000000000000000e-01
 1.249999999999999778e+00
 1.750000000000000222e+00
 2.250000000000000444e+00
 2.750000000000000444e+00
 3.250000000000000888e+00
 3.749999999999998224e+00
 4.250000000000000888e+00
 4.749999999999999112e+00
 5.250000000000000888e+00
 5.750000000000000000e+00
 6.250000000000000000e+00
 6.750000000000000000e+00
 7.250000000000000000e+00
 7.750000000000000000e+00
 8.250000000000000000e+00
 8.750000000000000000e+00
 9.250000000000000000e+00
 9.750000000000000000e+00
 1.024999999999998046e+01
 1.075000000000000000e+01
 1.125000000000001776e+01
 1.175000000000000000e+01
 1.225000000000002842e+01
 1.274999999999996980e+01
 1.325000000000001066e+01
 1.375000000000000000e+01
 1.424999999999995737e+01
 1.474999999999996625e+01
 2.500000000000001665e-01
 7.499999999999998890e-01
 1.250000000000000222e+00
 1.749999999999999556e+00
 2.250000000000000000e+00
 2.749999999999999556e+00
 3.250000000000000888e+00
 3.750000000000000000e+00
 4.250000000000000000e+00
 4.750000000000008882e+00
 5.250000000000000888e+00
 5.750000000000000000e+00
 6.250000000000000000e+00
 6.750000000000000000e+00
 7.250000000000000000e+00
 7.750000000000000000e+00
 8.250000000000000000e+00
 8.750000000000000000e+00
 9.250000000000000000e+00
 9.749999999999992895e+00
 1.025000000000000711e+01
 1.075000000000000000e+01
 1.125000000000000000e+01
 1.175000000000000000e+01
 1.225000000000000000e+01
 1.275000000000000000e+01
 1.324999999999999289e+01
 1.375000000000000000e+01
 1.425000000000000711e+01
 1.475000000000000000e+01
 2.500000000000000000e-01
 7.500000000000000000e-01
 1.250000000000000000e+00
 1.750000000000000000e+00
 2.250000000000000000e+00
 2.750000000000000000e+00
 3.250000000000000000e+00
 3.750000000000000000e+00
 4.250000000000000000e+00
 4.750000000000001776e+00
 5.249999999999997335e+00
 5.750000000000000888e+00
 6.250000000000000000e+00
 6.750000000000000000e+00
 7.250000000000000000e+00
 7.750000000000000000e+00
 8.250000000000000000e+00
 8.750000000000000000e+00
 9.250000000000000000e+00
 9.750000000000000000e+00
 1.025000000000000000e+01
 1.075000000000000000e+01
 1.125000000000000000e+01
 1.175000000000000000e+01
 1.225000000000000000e+01
 1.275000000000000000e+01
 1.325000000000000000e+01
 1.375000000000000000e+01
 1.425000000000000000e+01
 1.475000000000000000e+01
 2.500000000000002776e-01
 7.499999999999996669e-01
 1.250000000000000000e+00
 1.750000000000000000e+00
 2.250000000000000000e+00
 2.750000000000000000e+00
 3.249999999999999112e+00
 3.750000000000000444e+00
 4.250000000000000000e+00
 4.750000000000000000e+00
 5.250000000000001776e+00
 5.749999999999998224e+00
 6.250000000000000000e+00
 6.750000000000000000e+00
 7.250000000000000000e+00
 7.750000000000000000e+00
 8.250000000000000000e+00
 8.750000000000000000e+00
 9.250000000000000000e+00
 9.750000000000000000e+00
 1.025000000000000000e+01
 1.075000000000000000e+01
 1.125000000000000000e+01
 1.174999999999998046e+01
 1.225000000000000000e+01
 1.275000000000000000e+01
 1.325000000000000000e+01
 1.375000000000000000e+01
 1.425000000000003730e+01
 1.474999999999998579e+01
 2.499999999999997224e-01
 7.500000000000004441e-01
 1.249999999999999556e+00
 1.750000000000000444e+00
 2.250000000000000000e+00
 2.750000000000000000e+00
 3.250000000000000888e+00
 3.749999999999999556e+00
 4.250000000000000000e+00
 4.750000000000000000e+00
 5.249999999999999112e+00
 5.750000000000001776e+00
 6.250000000000000000e+00
 6.750000000000000000e+00
 7.250000000000000000e+00
 7.750000000000000000e+00
 8.250000000000000000e+00
 8.750000000000000000e+00
 9.250000000000000000e+00
 9.750000000000000000e+00
 1.025000000000000000e+01
 1.075000000000000000e+01
 1.125000000000001776e+01
 1.175000000000001776e+01
 1.225000000000001776e+01
 1.275000000000000000e+01
 1.324999999999999112e+01
 1.375000000000001243e+01
 1.424999999999993960e+01
 1.475000000000001243e+01
 2.500000000000000000e-01
 7.499999999999998890e-01
 1.250000000000000444e+00
 1.749999999999999778e+00
 2.250000000000000000e+00
 2.750000000000000000e+00
 3.250000000000000000e+00
 3.750000000000000000e+00
 4.250000000000000000e+00
 4.750000000000000000e+00
 5.250000000000000000e+00
 5.750000000000000000e+00
 6.250000000000004441e+00
 6.750000000000000000e+00
 7.250000000000000000e+00
 7.750000000000000000e+00
 8.250000000000000000e+00
 8.750000000000000000e+00
 9.250000000000000000e+00
 9.750000000000000000e+00
 1.025000000000000000e+01
 1.075000000000000000e+01
 1.125000000000000000e+01
 1.175000000000000000e+01
 1.225000000000001954e+01
 1.275000000000003730e+01
 1.324999999999994493e+01
 1.375000000000002487e+01
 1.424999999999998579e+01
 1.475000000000000000e+01
 2.499999999999997224e-01
 7.500000000000005551e-01
 1.249999999999999334e+00
 1.750000000000000222e+00
 2.250000000000000888e+00
 2.750000000000000000e+00
 3.250000000000000000e+00
 3.750000000000004441e+00
 4.249999999999999112e+00
 4.750000000000000000e+00
 5.250000000000000000e+00
 5.749999999999992006e+00
 6.250000000000000000e+00
 6.750000000000000000e+00
 7.250000000000008882e+00
 7.750000000000000000e+00
 8.250000000000000000e+00
 8.750000000000000000e+00
 9.250000000000000000e+00
 9.750000000000000000e+00
 1.025000000000000000e+01
 1.075000000000000000e+01
 1.124999999999998046e+01
 1.175000000000000533e+01
 1.225000000000001776e+01
 1.274999999999995559e+01
 1.325000000000000711e+01
 1.375000000000000000e+01
 1.425000000000002487e+01
 1.475000000000000888e+01
 2.500000000000002776e-01
 7.499999999999993339e-01
 1.250000000000000444e+00
 1.749999999999999778e+00
 2.250000000000000000e+00
 2.749999999999999556e+00
 3.249999999999998668e+00
 3.750000000000001332e+00
 4.250000000000000000e+00
 4.750000000000000888e+00
 5.249999999999997335e+00
 5.750000000000000888e+00
 6.250000000000000000e+00
 6.749999999999990230e+00
 7.250000000000000000e+00
 7.750000000000000000e+00
 8.250000000000000000e+00
 8.750000000000000000e+00
 9.250000000000000000e+00
 9.750000000000000000e+00
 1.025000000000000000e+01
 1.075000000000001776e+01
 1.124999999999998224e+01
 1.175000000000001599e+01
 1.225000000000003197e+01
 1.274999999999995381e+01
 1.325000000000002842e+01
 1.374999999999996092e+01
 1.424999999999998757e+01
 1.475000000000000888e+01
 2.500000000000001665e-01
 7.500000000000000000e-01
 1.249999999999999556e+00
 1.750000000000000444e+00
 2.250000000000000000e+00
 2.749999999999999556e+00
 3.250000000000002220e+00
 3.749999999999998224e+00
 4.250000000000001776e+00
 4.750000000000000000e+00
 5.250000000000004441e+00
 5.749999999999992006e+00
 6.250000000000004441e+00
 6.750000000000000000e+00
 7.250000000000000000e+00
 7.750000000000000000e+00
 8.250000000000000000e+00
 8.750000000000000000e+00
 9.250000000000000000e+00
 9.750000000000000000e+00
 1.025000000000001776e+01
 1.075000000000001243e+01
 1.124999999999996803e+01
 1.175000000000002132e+01
 1.225000000000003020e+01
 1.274999999999998757e+01
 1.325000000000000178e+01
 1.374999999999995737e+01
 1.425000000000002487e+01
 1.474999999999998579e+01
 2.500000000000000000e-01
 7.499999999999998890e-01
 1.249999999999999778e+00
 1.750000000000000888e+00
 2.250000000000000000e+00
 2.750000000000000888e+00
 3.250000000000000000e+00
 3.750000000000000444e+00
 4.250000000000000000e+00
 4.749999999999998224e+00
 5.250000000000004441e+00
 5.749999999999996447e+00
 6.250000000000003553e+00
 6.749999999999998224e+00
 7.250000000000000000e+00
 7.750000000000000000e+00
 8.250000000000008882e+00
 8.749999999999987566e+00
 9.250000000000000000e+00
 9.750000000000000000e+00
 1.025000000000003730e+01
 1.074999999999997335e+01
 1.125000000000000888e+01
 1.174999999999999645e+01
 1.225000000000000000e+01
 1.275000000000000533e+01
 1.324999999999996092e+01
 1.375000000000001421e+01
 1.424999999999996092e+01
 1.474999999999996092e+01
 2.499999999999997224e-01
 7.500000000000001110e-01
 1.250000000000000222e+00
 1.749999999999999778e+00
 2.249999999999998224e+00
 2.750000000000000444e+00
 3.250000000000000000e+00
 3.750000000000001776e+00
 4.250000000000000000e+00
 4.749999999999993783e+00
 5.249999999999994671e+00
 5.750000000000004441e+00
 6.249999999999998224e+00
 6.750000000000000888e+00
 7.250000000000000000e+00
 7.750000000000000000e+00
 8.250000000000000000e+00
 8.750000000000008882e+00
 9.249999999999960920e+00
 9.749999999999996447e+00
 1.025000000000001776e+01
 1.074999999999994316e+01
 1.125000000000000000e+01
 1.174999999999998046e+01
 1.224999999999999289e+01
 1.275000000000007105e+01
 1.325000000000000711e+01
 1.375000000000001421e+01
 1.425000000000000000e+01
 1.474999999999998757e+01
 2.500000000000004441e-01
 7.499999999999994449e-01
 1.250000000000000222e+00
 1.750000000000000222e+00
 2.250000000000000444e+00
 2.749999999999999556e+00
 3.250000000000001332e+00
 3.749999999999996447e+00
 4.250000000000000000e+00
 4.750000000000000000e+00
 5.249999999999999112e+00
 5.750000000000000888e+00
 6.250000000000000000e+00
 6.750000000000008882e+00
 7.250000000000000000e+00
 7.750000000000000000e+00
 8.250000000000000000e+00
 8.750000000000017764e+00
 9.249999999999992895e+00
 9.749999999999985789e+00
 1.024999999999998757e+01
 1.075000000000000711e+01
 1.125000000000001421e+01
 1.174999999999998579e+01
 1.225000000000000000e+01
 1.274999999999996803e+01
 1.325000000000005684e+01
 1.375000000000001243e+01
 1.425000000000002487e+01
 1.474999999999997691e+01
 2.499999999999995282e-01
 7.500000000000007772e-01
 1.249999999999999556e+00
 1.749999999999999556e+00
 2.250000000000000888e+00
 2.749999999999998668e+00
 3.250000000000003109e+00
 3.749999999999999112e+00
 4.249999999999998224e+00
 4.749999999999999112e+00
 5.250000000000000000e+00
 5.749999999999993783e+00
 6.249999999999990230e+00
 6.750000000000004441e+00
 7.250000000000000000e+00